##File Type: Far field
##File Format: 3
##Source: Dipole_Horizontal_9183KHz
##Date: 2016-01-30 19:28:20
** File exported by POSTFEKO version 7.0-238289 (x64)

#Request Name: FarField1
#Frequency: 9.18250000E+06
#Coordinate System: Spherical
#No. of Theta Samples: 3
#No. of Phi Samples: 3
#Result Type: Gain
#No. of Header Lines: 1
#                 "Theta"           "Phi"             "Re(Etheta)"      "Im(Etheta)"      "Re(Ephi)"        "Im(Ephi)"        "Gain(Theta)"     "Gain(Phi)"       "Gain(Total)"     
                   0.00000000E+00    0.00000000E+00    0.00000000E+00    0.00000000E+00    3.63478152E-01    5.77016152E-01   -1.00000000E+03    1.42922660E+00    1.42922660E+00   
                   5.00000000E+00    0.00000000E+00    0.00000000E+00    0.00000000E+00    3.63478134E-01    5.77016284E-01   -1.00000000E+03    1.42922790E+00    1.42922790E+00   
                   1.00000000E+01    0.00000000E+00    0.00000000E+00    0.00000000E+00    3.63478081E-01    5.77016490E-01   -1.00000000E+03    1.42922976E+00    1.42922976E+00   
                   1.50000000E+01    0.00000000E+00    0.00000000E+00    0.00000000E+00    3.63478014E-01    5.77016688E-01   -1.00000000E+03    1.42923143E+00    1.42923143E+00   
                   2.00000000E+01    0.00000000E+00    0.00000000E+00    0.00000000E+00    3.63477967E-01    5.77016801E-01   -1.00000000E+03    1.42923233E+00    1.42923233E+00   
                   2.50000000E+01    0.00000000E+00    0.00000000E+00    0.00000000E+00    3.63477966E-01    5.77016793E-01   -1.00000000E+03    1.42923225E+00    1.42923225E+00   
                   3.00000000E+01    0.00000000E+00    0.00000000E+00    0.00000000E+00    3.63478015E-01    5.77016681E-01   -1.00000000E+03    1.42923137E+00    1.42923137E+00   
                   3.50000000E+01    0.00000000E+00    0.00000000E+00    0.00000000E+00    3.63478093E-01    5.77016520E-01   -1.00000000E+03    1.42923016E+00    1.42923016E+00   
                   4.50000000E+01    1.00000000E+00    0.00000000E+00    0.00000000E+00    3.63478162E-01    5.77016385E-01   -1.00000000E+03    1.42922917E+00    1.42922917E+00

#Request Name: FarField1
#Frequency: 10.18250000E+06
#Coordinate System: Spherical
#No. of Theta Samples: 3
#No. of Phi Samples: 3
#Result Type: Gain
#No. of Header Lines: 1
#                 "Theta"           "Phi"             "Re(Etheta)"      "Im(Etheta)"      "Re(Ephi)"        "Im(Ephi)"        "Gain(Theta)"     "Gain(Phi)"       "Gain(Total)"
                   1.00000000E+00    0.00000000E+00    0.00000000E+00    0.00000000E+00    3.63478152E-01    5.77016152E-01   -1.00000000E+03    1.42922660E+00    1.42922660E+00
                   5.00000000E+00    0.00000000E+00    0.00000000E+00    0.00000000E+00    3.63478134E-01    5.77016284E-01   -1.00000000E+03    1.42922790E+00    1.42922790E+00
                   1.00000000E+01    0.00000000E+00    0.00000000E+00    0.00000000E+00    3.63478081E-01    5.77016490E-01   -1.00000000E+03    1.42922976E+00    1.42922976E+00
                   1.50000000E+01    0.00000000E+00    0.00000000E+00    0.00000000E+00    3.63478014E-01    5.77016688E-01   -1.00000000E+03    1.42923143E+00    1.42923143E+00
                   2.00000000E+01    0.00000000E+00    0.00000000E+00    0.00000000E+00    3.63477967E-01    5.77016801E-01   -1.00000000E+03    1.42923233E+00    1.42923233E+00
                   2.50000000E+01    0.00000000E+00    0.00000000E+00    0.00000000E+00    3.63477966E-01    5.77016793E-01   -1.00000000E+03    1.42923225E+00    1.42923225E+00
                   3.00000000E+01    0.00000000E+00    0.00000000E+00    0.00000000E+00    3.63478015E-01    5.77016681E-01   -1.00000000E+03    1.42923137E+00    1.42923137E+00
                   3.50000000E+01    0.00000000E+00    0.00000000E+00    0.00000000E+00    3.63478093E-01    5.77016520E-01   -1.00000000E+03    1.42923016E+00    1.42923016E+00
                   4.00000000E+01    1.00000000E+00    0.00000000E+00    0.00000000E+00    3.63478162E-01    5.77016385E-01   -11.00000000E+03    1.42922917E+00    1.42922917E+00
