##File Type: Far field
##File Format: 3
##Source: Dipole_Horizontal_9183KHz
##Date: 2016-01-30 19:28:20
** File exported by POSTFEKO version 7.0-238289 (x64)

#Request Name: FarField1
#Frequency: 9.18250000E+06
#Coordinate System: Spherical
#No. of Theta Samples: 37
#No. of Phi Samples: 73
#Result Type: Gain
#No. of Header Lines: 1
#                 "Theta"           "Phi"             "Re(Etheta)"      "Im(Etheta)"      "Re(Ephi)"        "Im(Ephi)"        "Gain(Theta)"     "Gain(Phi)"       "Gain(Total)"     
                   0.00000000E+00    0.00000000E+00    0.00000000E+00    0.00000000E+00    3.63478152E-01    5.77016152E-01   -1.00000000E+03    1.42922660E+00    1.42922660E+00   
                   5.00000000E+00    0.00000000E+00    0.00000000E+00    0.00000000E+00    3.63478134E-01    5.77016284E-01   -1.00000000E+03    1.42922790E+00    1.42922790E+00   
                   1.00000000E+01    0.00000000E+00    0.00000000E+00    0.00000000E+00    3.63478081E-01    5.77016490E-01   -1.00000000E+03    1.42922976E+00    1.42922976E+00   
                   1.50000000E+01    0.00000000E+00    0.00000000E+00    0.00000000E+00    3.63478014E-01    5.77016688E-01   -1.00000000E+03    1.42923143E+00    1.42923143E+00   
                   2.00000000E+01    0.00000000E+00    0.00000000E+00    0.00000000E+00    3.63477967E-01    5.77016801E-01   -1.00000000E+03    1.42923233E+00    1.42923233E+00   
                   2.50000000E+01    0.00000000E+00    0.00000000E+00    0.00000000E+00    3.63477966E-01    5.77016793E-01   -1.00000000E+03    1.42923225E+00    1.42923225E+00   
                   3.00000000E+01    0.00000000E+00    0.00000000E+00    0.00000000E+00    3.63478015E-01    5.77016681E-01   -1.00000000E+03    1.42923137E+00    1.42923137E+00   
                   3.50000000E+01    0.00000000E+00    0.00000000E+00    0.00000000E+00    3.63478093E-01    5.77016520E-01   -1.00000000E+03    1.42923016E+00    1.42923016E+00   
                   4.00000000E+01    0.00000000E+00    0.00000000E+00    0.00000000E+00    3.63478162E-01    5.77016385E-01   -1.00000000E+03    1.42922917E+00    1.42922917E+00   
                   4.50000000E+01    0.00000000E+00    0.00000000E+00    0.00000000E+00    3.63478190E-01    5.77016331E-01   -1.00000000E+03    1.42922878E+00    1.42922878E+00   
                   5.00000000E+01    0.00000000E+00    0.00000000E+00    0.00000000E+00    3.63478167E-01    5.77016377E-01   -1.00000000E+03    1.42922912E+00    1.42922912E+00   
                   5.50000000E+01    0.00000000E+00    0.00000000E+00    0.00000000E+00    3.63478108E-01    5.77016495E-01   -1.00000000E+03    1.42922999E+00    1.42922999E+00   
                   6.00000000E+01    0.00000000E+00    0.00000000E+00    0.00000000E+00    3.63478045E-01    5.77016626E-01   -1.00000000E+03    1.42923097E+00    1.42923097E+00   
                   6.50000000E+01    0.00000000E+00    0.00000000E+00    0.00000000E+00    3.63478007E-01    5.77016708E-01   -1.00000000E+03    1.42923161E+00    1.42923161E+00   
                   7.00000000E+01    0.00000000E+00    0.00000000E+00    0.00000000E+00    3.63478007E-01    5.77016704E-01   -1.00000000E+03    1.42923157E+00    1.42923157E+00   
                   7.50000000E+01    0.00000000E+00    0.00000000E+00    0.00000000E+00    3.63478036E-01    5.77016619E-01   -1.00000000E+03    1.42923084E+00    1.42923084E+00   
                   8.00000000E+01    0.00000000E+00    0.00000000E+00    0.00000000E+00    3.63478072E-01    5.77016496E-01   -1.00000000E+03    1.42922976E+00    1.42922976E+00   
                   8.50000000E+01    0.00000000E+00    0.00000000E+00    0.00000000E+00    3.63478094E-01    5.77016399E-01   -1.00000000E+03    1.42922886E+00    1.42922886E+00   
                   9.00000000E+01    0.00000000E+00    0.00000000E+00    0.00000000E+00    3.63478098E-01    5.77016378E-01   -1.00000000E+03    1.42922867E+00    1.42922867E+00   
                   9.50000000E+01    0.00000000E+00    0.00000000E+00    0.00000000E+00    3.63478094E-01    5.77016444E-01   -1.00000000E+03    1.42922935E+00    1.42922935E+00   
                   1.00000000E+02    0.00000000E+00    0.00000000E+00    0.00000000E+00    3.63478096E-01    5.77016563E-01   -1.00000000E+03    1.42923065E+00    1.42923065E+00   
                   1.05000000E+02    0.00000000E+00    0.00000000E+00    0.00000000E+00    3.63478108E-01    5.77016674E-01   -1.00000000E+03    1.42923192E+00    1.42923192E+00   
                   1.10000000E+02    0.00000000E+00    0.00000000E+00    0.00000000E+00    3.63478121E-01    5.77016718E-01   -1.00000000E+03    1.42923248E+00    1.42923248E+00   
                   1.15000000E+02    0.00000000E+00    0.00000000E+00    0.00000000E+00    3.63478116E-01    5.77016672E-01   -1.00000000E+03    1.42923196E+00    1.42923196E+00   
                   1.20000000E+02    0.00000000E+00    0.00000000E+00    0.00000000E+00    3.63478082E-01    5.77016561E-01   -1.00000000E+03    1.42923053E+00    1.42923053E+00   
                   1.25000000E+02    0.00000000E+00    0.00000000E+00    0.00000000E+00    3.63478028E-01    5.77016443E-01   -1.00000000E+03    1.42922889E+00    1.42922889E+00   
                   1.30000000E+02    0.00000000E+00    0.00000000E+00    0.00000000E+00    3.63477986E-01    5.77016377E-01   -1.00000000E+03    1.42922789E+00    1.42922789E+00   
                   1.35000000E+02    0.00000000E+00    0.00000000E+00    0.00000000E+00    3.63477989E-01    5.77016395E-01   -1.00000000E+03    1.42922810E+00    1.42922810E+00   
                   1.40000000E+02    0.00000000E+00    0.00000000E+00    0.00000000E+00    3.63478052E-01    5.77016481E-01   -1.00000000E+03    1.42922947E+00    1.42922947E+00   
                   1.45000000E+02    0.00000000E+00    0.00000000E+00    0.00000000E+00    3.63478156E-01    5.77016587E-01   -1.00000000E+03    1.42923131E+00    1.42923131E+00   
                   1.50000000E+02    0.00000000E+00    0.00000000E+00    0.00000000E+00    3.63478249E-01    5.77016656E-01   -1.00000000E+03    1.42923269E+00    1.42923269E+00   
                   1.55000000E+02    0.00000000E+00    0.00000000E+00    0.00000000E+00    3.63478272E-01    5.77016658E-01   -1.00000000E+03    1.42923286E+00    1.42923286E+00   
                   1.60000000E+02    0.00000000E+00    0.00000000E+00    0.00000000E+00    3.63478194E-01    5.77016596E-01   -1.00000000E+03    1.42923166E+00    1.42923166E+00   
                   1.65000000E+02    0.00000000E+00    0.00000000E+00    0.00000000E+00    3.63478031E-01    5.77016506E-01   -1.00000000E+03    1.42922959E+00    1.42922959E+00   
                   1.70000000E+02    0.00000000E+00    0.00000000E+00    0.00000000E+00    3.63477845E-01    5.77016433E-01   -1.00000000E+03    1.42922754E+00    1.42922754E+00   
                   1.75000000E+02    0.00000000E+00    0.00000000E+00    0.00000000E+00    3.63477718E-01    5.77016406E-01   -1.00000000E+03    1.42922639E+00    1.42922639E+00   
                   1.80000000E+02    0.00000000E+00    0.00000000E+00    0.00000000E+00    3.63477713E-01    5.77016425E-01   -1.00000000E+03    1.42922655E+00    1.42922655E+00   
                   0.00000000E+00    5.00000000E+00    3.16792083E-02    5.02902713E-02    3.62095008E-01    5.74820431E-01   -1.97648532E+01    1.39611112E+00    1.42922660E+00   
                   5.00000000E+00    5.00000000E+00    3.15581977E-02    5.00982104E-02    3.62089711E-01    5.74812500E-01   -1.97980906E+01    1.39598922E+00    1.42885410E+00   
                   1.00000000E+01    5.00000000E+00    3.11961100E-02    4.95235269E-02    3.62073884E-01    5.74788837E-01   -1.98983098E+01    1.39562537E+00    1.42774598E+00   
                   1.50000000E+01    5.00000000E+00    3.05957955E-02    4.85707271E-02    3.62048030E-01    5.74750085E-01   -2.00670589E+01    1.39502992E+00    1.42593496E+00   
                   2.00000000E+01    5.00000000E+00    2.97619737E-02    4.72472785E-02    3.62012969E-01    5.74697355E-01   -2.03070276E+01    1.39422042E+00    1.42347515E+00   
                   2.50000000E+01    5.00000000E+00    2.87011847E-02    4.55635408E-02    3.61969793E-01    5.74632218E-01   -2.06222289E+01    1.39322127E+00    1.42044061E+00   
                   3.00000000E+01    5.00000000E+00    2.74217257E-02    4.35326680E-02    3.61919821E-01    5.74556670E-01   -2.10182887E+01    1.39206299E+00    1.41692325E+00   
                   3.50000000E+01    5.00000000E+00    2.59335724E-02    4.11704837E-02    3.61864553E-01    5.74473061E-01   -2.15028928E+01    1.39078120E+00    1.41302987E+00   
                   4.00000000E+01    5.00000000E+00    2.42482878E-02    3.84953332E-02    3.61805637E-01    5.74384001E-01   -2.20864697E+01    1.38941533E+00    1.40887889E+00   
                   4.50000000E+01    5.00000000E+00    2.23789200E-02    3.55279165E-02    3.61744835E-01    5.74292249E-01   -2.27832571E+01    1.38800722E+00    1.40459653E+00   
                   5.00000000E+01    5.00000000E+00    2.03398882E-02    3.22911065E-02    3.61683988E-01    5.74200608E-01   -2.36130146E+01    1.38659978E+00    1.40031292E+00   
                   5.50000000E+01    5.00000000E+00    1.81468596E-02    2.88097562E-02    3.61624958E-01    5.74111835E-01   -2.46039027E+01    1.38523558E+00    1.39615814E+00   
                   6.00000000E+01    5.00000000E+00    1.58166192E-02    2.51104963E-02    3.61569570E-01    5.74028573E-01   -2.57976086E+01    1.38395571E+00    1.39225829E+00   
                   6.50000000E+01    5.00000000E+00    1.33669341E-02    2.12215251E-02    3.61519532E-01    5.73953290E-01   -2.72592005E+01    1.38279863E+00    1.38873181E+00   
                   7.00000000E+01    5.00000000E+00    1.08164160E-02    1.71723918E-02    3.61476374E-01    5.73888236E-01   -2.90981315E+01    1.38179919E+00    1.38568603E+00   
                   7.50000000E+01    5.00000000E+00    8.18438223E-03    1.29937750E-02    3.61441396E-01    5.73835390E-01   -3.15200520E+01    1.38098777E+00    1.38321399E+00   
                   8.00000000E+01    5.00000000E+00    5.49071564E-03    8.71725655E-03    3.61415638E-01    5.73796395E-01   -3.49871704E+01    1.38038934E+00    1.38139159E+00   
                   8.50000000E+01    5.00000000E+00    2.75572435E-03    4.37509527E-03    3.61399863E-01    5.73772493E-01   -4.09750216E+01    1.38002260E+00    1.38027510E+00   
                   9.00000000E+01    5.00000000E+00    1.93603958E-18    3.07373399E-18    3.61394546E-01    5.73764456E-01   -3.44041448E+02    1.37989919E+00    1.37989919E+00   
                   9.50000000E+01    5.00000000E+00   -2.75572432E-03   -4.37509562E-03    3.61399859E-01    5.73772538E-01   -4.09750211E+01    1.38002306E+00    1.38027556E+00   
                   1.00000000E+02    5.00000000E+00   -5.49071588E-03   -8.71725757E-03    3.61415654E-01    5.73796462E-01   -3.49871696E+01    1.38039018E+00    1.38139243E+00   
                   1.05000000E+02    5.00000000E+00   -8.18438366E-03   -1.29937762E-02    3.61441459E-01    5.73835445E-01   -3.15200509E+01    1.38098880E+00    1.38321502E+00   
                   1.10000000E+02    5.00000000E+00   -1.08164192E-02   -1.71723922E-02    3.61476480E-01    5.73888250E-01   -2.90981306E+01    1.38180006E+00    1.38568691E+00   
                   1.15000000E+02    5.00000000E+00   -1.33669380E-02   -2.12215237E-02    3.61519637E-01    5.73953254E-01   -2.72592002E+01    1.38279895E+00    1.38873213E+00   
                   1.20000000E+02    5.00000000E+00   -1.58166208E-02   -2.51104935E-02    3.61569607E-01    5.74028507E-01   -2.57976090E+01    1.38395526E+00    1.39225783E+00   
                   1.25000000E+02    5.00000000E+00   -1.81468558E-02   -2.88097535E-02    3.61624882E-01    5.74111782E-01   -2.46039038E+01    1.38523449E+00    1.39615704E+00   
                   1.30000000E+02    5.00000000E+00   -2.03398783E-02   -3.22911064E-02    3.61683811E-01    5.74200606E-01   -2.36130159E+01    1.38659856E+00    1.40031170E+00   
                   1.35000000E+02    5.00000000E+00   -2.23789078E-02   -3.55279203E-02    3.61744638E-01    5.74292310E-01   -2.27832578E+01    1.38800655E+00    1.40459585E+00   
                   1.40000000E+02    5.00000000E+00   -2.42482806E-02   -3.84953396E-02    3.61805529E-01    5.74384096E-01   -2.20864694E+01    1.38941562E+00    1.40887918E+00   
                   1.45000000E+02    5.00000000E+00   -2.59335768E-02   -4.11704885E-02    3.61864615E-01    5.74473127E-01   -2.15028916E+01    1.39078235E+00    1.41303102E+00   
                   1.50000000E+02    5.00000000E+00   -2.74217432E-02   -4.35326662E-02    3.61920052E-01    5.74556647E-01   -2.10182874E+01    1.39206432E+00    1.41692457E+00   
                   1.55000000E+02    5.00000000E+00   -2.87012087E-02   -4.55635302E-02    3.61970096E-01    5.74632085E-01   -2.06222282E+01    1.39322189E+00    1.42044123E+00   
                   1.60000000E+02    5.00000000E+00   -2.97619921E-02   -4.72472618E-02    3.62013193E-01    5.74697153E-01   -2.03070283E+01    1.39421976E+00    1.42347448E+00   
                   1.65000000E+02    5.00000000E+00   -3.05957968E-02   -4.85707120E-02    3.62048045E-01    5.74749907E-01   -2.00670607E+01    1.39502809E+00    1.42593312E+00   
                   1.70000000E+02    5.00000000E+00   -3.11960896E-02   -4.95235222E-02    3.62073648E-01    5.74788782E-01   -1.98983120E+01    1.39562316E+00    1.42774377E+00   
                   1.75000000E+02    5.00000000E+00   -3.15581616E-02   -5.00982210E-02    3.62089296E-01    5.74812622E-01   -1.97980921E+01    1.39598771E+00    1.42885259E+00   
                   1.80000000E+02    5.00000000E+00   -3.16791700E-02   -5.02902951E-02    3.62094570E-01    5.74820703E-01   -1.97648533E+01    1.39611108E+00    1.42922655E+00   
                   0.00000000E+00    1.00000000E+01    6.31173187E-02    1.00197803E-01    3.57956102E-01    5.68249980E-01   -1.37773688E+01    1.29625578E+00    1.42922660E+00   
                   5.00000000E+00    1.00000000E+01    6.28734793E-02    9.98109982E-02    3.57935272E-01    5.68218543E-01   -1.38109719E+01    1.29576815E+00    1.42774410E+00   
                   1.00000000E+01    1.00000000E+01    6.21440342E-02    9.86538985E-02    3.57873230E-01    5.68125159E-01   -1.39122770E+01    1.29431837E+00    1.42333859E+00   
                   1.50000000E+01    1.00000000E+01    6.09352745E-02    9.67364049E-02    3.57771896E-01    5.67972612E-01   -1.40827994E+01    1.29194966E+00    1.41613924E+00   
                   2.00000000E+01    1.00000000E+01    5.92575757E-02    9.40748613E-02    3.57634405E-01    5.67765500E-01   -1.43251750E+01    1.28873328E+00    1.40635810E+00   
                   2.50000000E+01    1.00000000E+01    5.71252342E-02    9.06918155E-02    3.57464988E-01    5.67510124E-01   -1.46433438E+01    1.28476650E+00    1.39428459E+00   
                   3.00000000E+01    1.00000000E+01    5.45562519E-02    8.66156908E-02    3.57268826E-01    5.67214299E-01   -1.50428422E+01    1.28016979E+00    1.38027763E+00   
                   3.50000000E+01    1.00000000E+01    5.15720773E-02    8.18803836E-02    3.57051888E-01    5.66887105E-01   -1.55312512E+01    1.27508297E+00    1.36475552E+00   
                   4.00000000E+01    1.00000000E+01    4.81973153E-02    7.65248040E-02    3.56820757E-01    5.66538579E-01   -1.61188844E+01    1.26966089E+00    1.34818404E+00   
                   4.50000000E+01    1.00000000E+01    4.44594135E-02    7.05923797E-02    3.56582443E-01    5.66179381E-01   -1.68198560E+01    1.26406852E+00    1.33106282E+00   
                   5.00000000E+01    1.00000000E+01    4.03883347E-02    6.41305414E-02    3.56344187E-01    5.65820448E-01   -1.76537988E+01    1.25847586E+00    1.31391062E+00   
                   5.50000000E+01    1.00000000E+01    3.60162252E-02    5.71902083E-02    3.56113241E-01    5.65472652E-01   -1.86487458E+01    1.25305272E+00    1.29724971E+00   
                   6.00000000E+01    1.00000000E+01    3.13770897E-02    4.98252867E-02    3.55896637E-01    5.65146485E-01   -1.98462609E+01    1.24796362E+00    1.28158995E+00   
                   6.50000000E+01    1.00000000E+01    2.65064807E-02    4.20921901E-02    3.55700962E-01    5.64851769E-01   -2.13112964E+01    1.24336297E+00    1.26741298E+00   
                   7.00000000E+01    1.00000000E+01    2.14412117E-02    3.40493884E-02    3.55532143E-01    5.64597382E-01   -2.31532004E+01    1.23939048E+00    1.25515703E+00   
                   7.50000000E+01    1.00000000E+01    1.62190960E-02    2.57569891E-02    3.55395269E-01    5.64391016E-01   -2.55775329E+01    1.23616708E+00    1.24520279E+00   
                   8.00000000E+01    1.00000000E+01    1.08787107E-02    1.72763525E-02    3.55294453E-01    5.64238940E-01   -2.90464287E+01    1.23379125E+00    1.23786092E+00   
                   8.50000000E+01    1.00000000E+01    5.45918404E-03    8.66974131E-03    3.55232716E-01    5.64145800E-01   -3.50353685E+01    1.23233591E+00    1.23336147E+00   
                   9.00000000E+01    1.00000000E+01    3.83519240E-18    6.09069500E-18    3.55211918E-01    5.64114450E-01   -3.38102162E+02    1.23184587E+00    1.23184587E+00   
                   9.50000000E+01    1.00000000E+01   -5.45918379E-03   -8.66974200E-03    3.55232700E-01    5.64145845E-01   -3.50353681E+01    1.23233629E+00    1.23336185E+00   
                   1.00000000E+02    1.00000000E+01   -1.08787106E-02   -1.72763546E-02    3.55294449E-01    5.64239008E-01   -2.90464280E+01    1.23379197E+00    1.23786164E+00   
                   1.05000000E+02    1.00000000E+01   -1.62190979E-02   -2.57569916E-02    3.55395310E-01    5.64391072E-01   -2.55775320E+01    1.23616798E+00    1.24520369E+00   
                   1.10000000E+02    1.00000000E+01   -2.14412171E-02   -3.40493893E-02    3.55532231E-01    5.64597396E-01   -2.31531996E+01    1.23939124E+00    1.25515779E+00   
                   1.15000000E+02    1.00000000E+01   -2.65064878E-02   -4.20921874E-02    3.55701057E-01    5.64851732E-01   -2.13112962E+01    1.24336323E+00    1.26741324E+00   
                   1.20000000E+02    1.00000000E+01   -3.13770931E-02   -4.98252808E-02    3.55896675E-01    5.65146418E-01   -1.98462613E+01    1.24796315E+00    1.28158948E+00   
                   1.25000000E+02    1.00000000E+01   -3.60162185E-02   -5.71902025E-02    3.56113174E-01    5.65472595E-01   -1.86487469E+01    1.25305162E+00    1.29724862E+00   
                   1.30000000E+02    1.00000000E+01   -4.03883161E-02   -6.41305406E-02    3.56344023E-01    5.65820441E-01   -1.76538000E+01    1.25847465E+00    1.31390941E+00   
                   1.35000000E+02    1.00000000E+01   -4.44593902E-02   -7.05923868E-02    3.56582256E-01    5.66179438E-01   -1.68198567E+01    1.26406785E+00    1.33106214E+00   
                   1.40000000E+02    1.00000000E+01   -4.81973013E-02   -7.65248164E-02    3.56820653E-01    5.66538670E-01   -1.61188841E+01    1.26966117E+00    1.34818432E+00   
                   1.45000000E+02    1.00000000E+01   -5.15720858E-02   -8.18803931E-02    3.57051948E-01    5.66887171E-01   -1.55312501E+01    1.27508410E+00    1.36475666E+00   
                   1.50000000E+02    1.00000000E+01   -5.45562858E-02   -8.66156878E-02    3.57269048E-01    5.67214280E-01   -1.50428408E+01    1.28017111E+00    1.38027895E+00   
                   1.55000000E+02    1.00000000E+01   -5.71252809E-02   -9.06917953E-02    3.57465280E-01    5.67509998E-01   -1.46433432E+01    1.28476713E+00    1.39428522E+00   
                   1.60000000E+02    1.00000000E+01   -5.92576113E-02   -9.40748292E-02    3.57634620E-01    5.67765306E-01   -1.43251756E+01    1.28873264E+00    1.40635746E+00   
                   1.65000000E+02    1.00000000E+01   -6.09352762E-02   -9.67363757E-02    3.57771906E-01    5.67972440E-01   -1.40828012E+01    1.29194786E+00    1.41613743E+00   
                   1.70000000E+02    1.00000000E+01   -6.21439933E-02   -9.86538898E-02    3.57872994E-01    5.68125108E-01   -1.39122792E+01    1.29431619E+00    1.42333642E+00   
                   1.75000000E+02    1.00000000E+01   -6.28734073E-02   -9.98110197E-02    3.57934862E-01    5.68218665E-01   -1.38109734E+01    1.29576667E+00    1.42774262E+00   
                   1.80000000E+02    1.00000000E+01   -6.31172424E-02   -1.00197851E-01    3.57955669E-01    5.68250249E-01   -1.37773688E+01    1.29625573E+00    1.42922655E+00   
                   0.00000000E+00    1.50000000E+01    9.40750682E-02    1.49342769E-01    3.51092934E-01    5.57354804E-01   -1.03108488E+01    1.12810216E+00    1.42922660E+00   
                   5.00000000E+00    1.50000000E+01    9.37049564E-02    1.48756163E-01    3.51047500E-01    5.57286202E-01   -1.03450490E+01    1.12701740E+00    1.42593139E+00   
                   1.00000000E+01    1.50000000E+01    9.25981975E-02    1.47002078E-01    3.50912325E-01    5.57082559E-01   -1.04481274E+01    1.12379433E+00    1.41613752E+00   
                   1.50000000E+01    1.50000000E+01    9.07656670E-02    1.44097527E-01    3.50691608E-01    5.56750091E-01   -1.06215458E+01    1.11852958E+00    1.40012208E+00   
                   2.00000000E+01    1.50000000E+01    8.82252085E-02    1.40070456E-01    3.50392196E-01    5.56298993E-01   -1.08678530E+01    1.11138161E+00    1.37834059E+00   
                   2.50000000E+01    1.50000000E+01    8.50012227E-02    1.34959130E-01    3.50023343E-01    5.55743134E-01   -1.11908705E+01    1.10256619E+00    1.35141679E+00   
                   3.00000000E+01    1.50000000E+01    8.11241275E-02    1.28811316E-01    3.49596402E-01    5.55099623E-01   -1.15959883E+01    1.09235004E+00    1.32012805E+00   
                   3.50000000E+01    1.50000000E+01    7.66297217E-02    1.21683304E-01    3.49124460E-01    5.54388254E-01   -1.20906178E+01    1.08104273E+00    1.28538632E+00   
                   4.00000000E+01    1.50000000E+01    7.15584830E-02    1.13638818E-01    3.48621933E-01    5.53630860E-01   -1.26848843E+01    1.06898731E+00    1.24821494E+00   
                   4.50000000E+01    1.50000000E+01    6.59548353E-02    1.04747880E-01    3.48104138E-01    5.52850603E-01   -1.33927011E+01    1.05654977E+00    1.20972133E+00   
                   5.00000000E+01    1.50000000E+01    5.98664162E-02    9.50856701E-02    3.47586829E-01    5.52071239E-01   -1.42334931E+01    1.04410791E+00    1.17106614E+00   
                   5.50000000E+01    1.50000000E+01    5.33433760E-02    8.47314532E-02    3.47085719E-01    5.51316387E-01   -1.52350851E+01    1.03203986E+00    1.13342924E+00   
                   6.00000000E+01    1.50000000E+01    4.64377376E-02    7.37675953E-02    3.46615993E-01    5.50608827E-01   -1.64388383E+01    1.02071257E+00    1.09797359E+00   
                   6.50000000E+01    1.50000000E+01    3.92028409E-02    6.22787074E-02    3.46191841E-01    5.49969846E-01   -1.79095150E+01    1.01047078E+00    1.06580782E+00   
                   7.00000000E+01    1.50000000E+01    3.16928878E-02    5.03509326E-02    3.45826027E-01    5.49418630E-01   -1.97562907E+01    1.00162659E+00    1.03794904E+00   
                   7.50000000E+01    1.50000000E+01    2.39625942E-02    3.80713836E-02    3.45529514E-01    5.48971725E-01   -2.21845764E+01    9.94449970E-01    1.01528717E+00   
                   8.00000000E+01    1.50000000E+01    1.60669445E-02    2.55277285E-02    3.45311158E-01    5.48642554E-01   -2.56563859E+01    9.89160491E-01    9.98552532E-01   
                   8.50000000E+01    1.50000000E+01    8.06103679E-03    1.28079135E-02    3.45177471E-01    5.48441015E-01   -3.16471104E+01    9.85920381E-01    9.88288278E-01   
                   9.00000000E+01    1.50000000E+01    5.66264188E-18    8.99724420E-18    3.45132445E-01    5.48373172E-01   -3.34714505E+02    9.84829241E-01    9.84829241E-01   
                   9.50000000E+01    1.50000000E+01   -8.06103606E-03   -1.28079146E-02    3.45177440E-01    5.48441060E-01   -3.16471101E+01    9.85920668E-01    9.88288566E-01   
                   1.00000000E+02    1.50000000E+01   -1.60669432E-02   -2.55277316E-02    3.45311129E-01    5.48642622E-01   -2.56563853E+01    9.89161053E-01    9.98553095E-01   
                   1.05000000E+02    1.50000000E+01   -2.39625950E-02   -3.80713875E-02    3.45529527E-01    5.48971782E-01   -2.21845756E+01    9.94450701E-01    1.01528790E+00   
                   1.10000000E+02    1.50000000E+01   -3.16928938E-02   -5.03509340E-02    3.45826093E-01    5.49418645E-01   -1.97562900E+01    1.00162723E+00    1.03794968E+00   
                   1.15000000E+02    1.50000000E+01   -3.92028506E-02   -6.22787033E-02    3.46191926E-01    5.49969809E-01   -1.79095148E+01    1.01047097E+00    1.06580802E+00   
                   1.20000000E+02    1.50000000E+01   -4.64377432E-02   -7.37675860E-02    3.46616034E-01    5.50608758E-01   -1.64388388E+01    1.02071208E+00    1.09797310E+00   
                   1.25000000E+02    1.50000000E+01   -5.33433679E-02   -8.47314437E-02    3.47085666E-01    5.51316325E-01   -1.52350861E+01    1.03203878E+00    1.13342817E+00   
                   1.30000000E+02    1.50000000E+01   -5.98663912E-02   -9.50856677E-02    3.47586684E-01    5.52071225E-01   -1.42334943E+01    1.04410673E+00    1.17106495E+00   
                   1.35000000E+02    1.50000000E+01   -6.59548028E-02   -1.04747889E-01    3.48103966E-01    5.52850652E-01   -1.33927018E+01    1.05654911E+00    1.20972067E+00   
                   1.40000000E+02    1.50000000E+01   -7.15584631E-02   -1.13638836E-01    3.48621836E-01    5.53630946E-01   -1.26848840E+01    1.06898760E+00    1.24821522E+00   
                   1.45000000E+02    1.50000000E+01   -7.66297337E-02   -1.21683318E-01    3.49124514E-01    5.54388320E-01   -1.20906167E+01    1.08104386E+00    1.28538745E+00   
                   1.50000000E+02    1.50000000E+01   -8.11241758E-02   -1.28811313E-01    3.49596611E-01    5.55099609E-01   -1.15959870E+01    1.09235135E+00    1.32012937E+00   
                   1.55000000E+02    1.50000000E+01   -8.50012893E-02   -1.34959102E-01    3.50023618E-01    5.55743019E-01   -1.11908699E+01    1.10256683E+00    1.35141744E+00   
                   1.60000000E+02    1.50000000E+01   -8.82252590E-02   -1.40070411E-01    3.50392396E-01    5.56298812E-01   -1.08678536E+01    1.11138101E+00    1.37833998E+00   
                   1.65000000E+02    1.50000000E+01   -9.07656679E-02   -1.44097486E-01    3.50691611E-01    5.56749932E-01   -1.06215476E+01    1.11852783E+00    1.40012032E+00   
                   1.70000000E+02    1.50000000E+01   -9.25981359E-02   -1.47002066E-01    3.50912091E-01    5.57082515E-01   -1.04481296E+01    1.12379220E+00    1.41613539E+00   
                   1.75000000E+02    1.50000000E+01   -9.37048490E-02   -1.48756196E-01    3.51047098E-01    5.57286325E-01   -1.03450505E+01    1.12701594E+00    1.42592993E+00   
                   1.80000000E+02    1.50000000E+01   -9.40749545E-02   -1.49342840E-01    3.51092510E-01    5.57355067E-01   -1.03108488E+01    1.12810212E+00    1.42922655E+00   
                   0.00000000E+00    2.00000000E+01    1.24316850E-01    1.97351147E-01    3.41557737E-01    5.42217820E-01   -7.88973971E+00    8.88942927E-01    1.42922660E+00   
                   5.00000000E+00    2.00000000E+01    1.23815784E-01    1.96557894E-01    3.41480509E-01    5.42101233E-01   -7.92475038E+00    8.87047733E-01    1.42347064E+00   
                   1.00000000E+01    2.00000000E+01    1.22318209E-01    1.94187129E-01    3.41250885E-01    5.41755232E-01   -8.03023573E+00    8.81417728E-01    1.40635540E+00   
                   1.50000000E+01    2.00000000E+01    1.19841205E-01    1.90265420E-01    3.40876075E-01    5.41190567E-01   -8.20758572E+00    8.72221357E-01    1.37833957E+00   
                   2.00000000E+01    2.00000000E+01    1.16412650E-01    1.84836169E-01    3.40367817E-01    5.40424804E-01   -8.45923179E+00    8.59734518E-01    1.34017985E+00   
                   2.50000000E+01    2.00000000E+01    1.12070363E-01    1.77958339E-01    3.39741969E-01    5.39481758E-01   -8.78883570E+00    8.44332703E-01    1.29291812E+00   
                   3.00000000E+01    2.00000000E+01    1.06860995E-01    1.69704772E-01    3.39017966E-01    5.38390708E-01   -9.20158995E+00    8.26480049E-01    1.23786257E+00   
                   3.50000000E+01    2.00000000E+01    1.00838722E-01    1.60160202E-01    3.38218179E-01    5.37185423E-01   -9.70467663E+00    8.06715619E-01    1.17656214E+00   
                   4.00000000E+01    2.00000000E+01    9.40638374E-02    1.49419081E-01    3.37367200E-01    5.35903048E-01   -1.03079660E+01    7.85637311E-01    1.11077382E+00   
                   4.50000000E+01    2.00000000E+01    8.66013010E-02    1.37583365E-01    3.36491072E-01    5.34582893E-01   -1.10250987E+01    7.63883904E-01    1.04242207E+00   
                   5.00000000E+01    2.00000000E+01    7.85193419E-02    1.24760353E-01    3.35616486E-01    5.33265186E-01   -1.18752169E+01    7.42115779E-01    9.73550191E-01   
                   5.50000000E+01    2.00000000E+01    6.98881673E-02    1.11060724E-01    3.34769962E-01    5.31989830E-01   -1.28858617E+01    7.20994897E-01    9.06263693E-01   
                   6.00000000E+01    2.00000000E+01    6.07788510E-02    9.65968305E-02    3.33977041E-01    5.30795221E-01   -1.40981179E+01    7.01164642E-01    8.42666375E-01   